/*--------------------------------*- C++ -*----------------------------------*\
| =========                 |                                                 |
| \\      /  F ield         | OpenFOAM: The Open Source CFD Toolbox           |
|  \\    /   O peration     | Version:  4.x                                   |
|   \\  /    A nd           | Web:      www.OpenFOAM.org                      |
|    \\/     M anipulation  |                                                 |
\*---------------------------------------------------------------------------*/
FoamFile
{
    version     2.0;
    format      ascii;
    class       volScalarField;
    location    "0";
    object      cLES;
}
// * * * * * * * * * * * * * * * * * * * * * * * * * * * * * * * * * * * * * //

dimensions      [0 0 0 0 0 0 0];

internalField   nonuniform List<scalar> 
65536
(
5.16102902118e-19
1.2606898535e-18
3.68026075652e-18
7.18384009784e-17
3.83146598392e-15
7.86934532753e-15
8.48708711394e-15
7.90958377031e-15
7.10808804012e-15
8.64402115363e-15
3.05688777319e-14
3.81221569414e-13
2.52468658629e-12
6.31428240038e-12
1.41078172668e-11
1.3347894261e-11
1.05177955216e-10
1.77673458885e-09
4.63542472161e-08
1.28767313079e-06
7.3284077643e-06
1.8993979234e-05
4.56005653773e-05
9.7286462728e-06
0.000844201795262
0.0828228123074
0.337533493625
0.545724720428
0.66979095089
0.736181054505
0.785996685344
0.814274907565
0.839006263872
0.855341322849
0.854127334533
0.808704412061
0.764980519199
0.740510722408
0.73148440965
0.753362156286
0.786227463235
0.826611974592
0.866565234557
0.902740479928
0.918709731273
0.932870287231
0.940269762465
0.941388002995
0.942318345445
0.947699111515
0.954730099033
0.958457274348
0.959964678545
0.959428383498
0.957939944943
0.95534281698
0.954197298315
0.954284269172
0.955813377759
0.9584003161
0.962371559855
0.967315652804
0.972940424724
0.976997486588
1.31509492958e-18
8.96506737242e-18
4.07684375922e-17
2.26297167946e-16
3.42293766002e-15
3.32249757529e-15
7.22048371813e-15
8.98450881368e-15
7.88952678771e-15
1.13310243057e-14
2.83506271883e-14
1.13364727015e-13
3.86305574576e-13
1.27109383212e-12
1.8548289254e-12
1.86541815489e-11
5.94972061578e-10
7.38114031453e-09
4.80843291318e-08
1.28864145538e-06
4.91907534467e-06
5.57948716536e-06
1.8979618672e-06
6.22303556223e-05
0.0289460692908
0.223132985376
0.422959660931
0.560873288098
0.64405772659
0.693613040115
0.738671747179
0.77607118495
0.822194403056
0.857590852087
0.866002085242
0.852254919534
0.822006978804
0.795091834995
0.777803784075
0.777666038091
0.773549946266
0.797103348063
0.835843493005
0.864721090167
0.896694404311
0.913739600332
0.923240121107
0.925181757886
0.926982605889
0.929991169299
0.938681331533
0.950011311878
0.954204943377
0.954535091937
0.954068539367
0.95240399571
0.951569591884
0.951491006497
0.952716209061
0.95553415914
0.960102494313
0.965550632553
0.971256063706
0.976085819619
5.59140617206e-19
8.28423271479e-18
1.83292285639e-16
1.25136877142e-15
1.02961889524e-15
6.24966765761e-16
5.53235668598e-15
6.17532878127e-15
1.73891065587e-14
2.40396433803e-13
2.58089442924e-13
7.10489044289e-14
2.6461173653e-13
1.38462742708e-12
1.3151691944e-11
4.15835623257e-11
8.85942172361e-10
1.32529796639e-08
1.45526225102e-07
1.31433876259e-06
2.21688518902e-06
1.55478611984e-06
2.92914005589e-05
0.00599850864793
0.100295484719
0.259568218928
0.366123547469
0.443429258981
0.495158138409
0.532761304231
0.625907330688
0.725652357922
0.793122495979
0.852568607076
0.872800740875
0.867987181009
0.853964087434
0.833226677352
0.827591091268
0.820166669491
0.821576703675
0.817735400804
0.815015329631
0.843537427567
0.86631430251
0.886886965267
0.900136703223
0.906925849169
0.909677843135
0.911827459353
0.924380240849
0.938563123134
0.945900316625
0.95000145022
0.9506224928
0.950248987937
0.949878429675
0.950310007295
0.951482622325
0.954240176312
0.959190297188
0.965110128575
0.971122624382
0.976502403831
4.86217251079e-18
4.03754586005e-18
3.79408612537e-17
1.14111451996e-16
7.41764927634e-17
1.92724714379e-16
2.6179399295e-15
4.73946568315e-15
3.82554797325e-14
7.33314477154e-13
1.12153889186e-12
5.30462581083e-12
1.78499990814e-11
2.26774135323e-11
5.64439920538e-11
3.26453957274e-11
1.07067189717e-09
6.66306792454e-08
5.13701375434e-07
9.69192634358e-07
8.02149919564e-07
4.10518254826e-06
0.00133681880712
0.0264764402686
0.0795577350235
0.143675484142
0.198070988079
0.210807357674
0.186007596174
0.186696609985
0.452782700393
0.65881352032
0.772560496171
0.83261217244
0.872947163806
0.880285552137
0.886434657189
0.875521779695
0.872228134903
0.865381369027
0.863218545546
0.85447085368
0.843544687369
0.850396939508
0.85460046022
0.863627688614
0.873119368876
0.882713770633
0.885744293637
0.888879925024
0.906132043525
0.926238974094
0.939783372452
0.946068525378
0.948057720811
0.949343942586
0.949978837486
0.951002721827
0.95267575114
0.955714659431
0.961122685653
0.96638443078
0.972263235659
0.97731919131
1.9955427298e-19
2.76486615197e-18
1.54830134361e-16
1.19972770302e-15
1.58529668743e-16
7.01795133646e-16
3.15400456667e-15
4.44227362002e-15
9.5282195711e-14
6.99609080578e-13
1.39506521092e-12
9.54137493698e-11
2.63151170222e-10
3.76846510713e-10
3.15708181725e-10
1.63817805562e-10
1.2106015037e-09
1.60569198886e-08
1.16186802532e-07
2.98622119381e-07
2.09358871071e-07
9.52014408278e-06
0.000268269440045
0.000511657917481
0.000448962920153
0.000770984295279
0.00212580089129
0.00247032029547
0.000858498251952
0.0547885181929
0.382633499721
0.61659450622
0.749005513494
0.820348491052
0.847485483825
0.8570102366
0.851732228607
0.850598466162
0.850315972924
0.867860665813
0.874270717427
0.879066799669
0.875902841517
0.866471267482
0.865953636666
0.859980241563
0.855131869304
0.846322298517
0.852408989158
0.858238206719
0.88517867092
0.912545098609
0.932687687594
0.943863550146
0.948478187421
0.951149132091
0.953116627622
0.954398877471
0.956288215211
0.959616982823
0.964045575133
0.969761843664
0.974884256992
0.979088489306
1.87391468922e-20
2.26141033782e-17
3.21446572817e-14
1.03421618248e-13
4.9478899325e-14
3.78324450241e-14
2.15297271772e-14
4.77518615057e-15
7.15205437003e-14
5.44003187817e-13
3.03604949739e-12
3.54797028039e-10
4.69210508043e-09
5.43362341882e-09
2.23161089102e-09
1.22696974278e-09
1.7814963586e-09
5.87317327171e-09
1.75953118111e-08
5.66916074735e-08
6.67576992263e-07
7.77595067838e-06
4.14645882911e-05
8.35468621624e-05
5.14346671786e-05
1.95886509865e-05
2.48507910588e-05
3.73373632716e-05
0.000101259279575
0.0636590071476
0.382597914203
0.62123108997
0.736445161155
0.783116383276
0.78409417438
0.762319454339
0.731010709051
0.725164351326
0.741004401203
0.795127878702
0.843575712433
0.872796016654
0.886416252148
0.89080292473
0.881853538405
0.867070596149
0.849157842052
0.827370033236
0.812933562615
0.820112889077
0.856767374053
0.898020604943
0.926758645711
0.942380544634
0.950862885808
0.955304213743
0.957824670818
0.959825403428
0.962654597297
0.965787992134
0.969323601218
0.974035816819
0.977661708668
0.980622101471
1.06128374202e-18
4.47825592529e-15
6.79393431478e-13
2.18106892585e-12
3.12257801829e-12
2.88009529265e-12
6.62968277249e-13
1.01898886098e-14
3.30756747677e-14
3.68350014367e-13
6.1781722518e-12
1.82006069496e-09
5.54822814834e-08
2.32561177474e-08
1.70704465039e-09
5.43647334259e-10
8.75563680448e-10
6.0959987034e-09
1.60577727333e-07
1.13988806284e-06
2.60545850498e-06
3.40645033116e-05
0.00022712931478
0.000402744084587
0.000226951038777
0.00026971203656
0.000642417625039
0.000874401272465
0.00073775850722
0.0360549690596
0.433547926045
0.645684580898
0.744182357381
0.766761890299
0.746694423369
0.690511150103
0.602516652302
0.577513360425
0.614392466817
0.679538609204
0.74629959128
0.802284489271
0.847675138303
0.875226203323
0.88506759218
0.870555976943
0.84230930456
0.806992886875
0.788157086083
0.79660348276
0.84186597609
0.887406770201
0.921390534436
0.943486254858
0.954982950625
0.961011847841
0.96426880517
0.966383901587
0.968114788827
0.971860522888
0.974759964755
0.978094794642
0.980998619037
0.982647270837
4.26080563983e-18
5.42216669906e-14
2.43476522384e-12
5.06907901784e-12
2.13634993052e-12
3.2973701709e-12
2.64760059375e-12
1.98121536151e-13
3.93433546125e-12
1.5685046962e-11
2.21601930698e-11
4.98843232466e-08
5.93745997557e-07
6.91406357473e-08
1.49218790981e-09
2.44492873422e-10
1.82344427541e-09
2.25203901845e-08
1.03959268415e-08
5.34320717196e-08
3.0339965279e-06
0.000494502090038
0.000913764019708
0.000755063434415
0.00133616764318
0.00329409608809
0.0052331229296
0.00346141466094
0.113141046104
0.336431171702
0.570403071675
0.696401642745
0.761639678212
0.766097262058
0.73166056842
0.646758896636
0.522779831601
0.399357856519
0.403701884077
0.53774422956
0.618839182831
0.689577490375
0.769356487943
0.829906639523
0.849859293133
0.845560210073
0.820824028836
0.779107675646
0.768539194116
0.790294947886
0.837468796091
0.882375640919
0.918354657372
0.9432909936
0.959080342685
0.96644929703
0.969663747849
0.971472529739
0.97420742132
0.976752909511
0.979624930086
0.981955997149
0.983355230307
0.9841069627
5.5778698269e-17
2.65730757846e-14
8.00538444501e-13
2.50359907634e-12
9.69195356528e-13
1.04640694149e-12
4.74162610097e-12
3.18939488706e-12
4.27981547465e-11
1.742338726e-10
7.10005483173e-09
4.32556694963e-07
9.52162156785e-07
5.11737228124e-08
1.35650307213e-09
1.36698297557e-10
2.5228806579e-08
1.10007282741e-07
4.69402389059e-08
2.42783304031e-07
0.0001560343972
0.00144483101351
0.00143762332418
0.00736179320716
0.0091247361795
0.0137955370792
0.0111675115754
0.124261435135
0.381080852387
0.566875352349
0.696486057355
0.764633363547
0.79960313117
0.788188637796
0.740221568875
0.652912002246
0.489609000525
0.200104103515
0.120288510547
0.246358941862
0.350998887496
0.54826677781
0.678027256658
0.770296719322
0.807253012362
0.809274727471
0.792612436712
0.771450680259
0.772240926553
0.800881921047
0.843688170491
0.88916892695
0.922328653986
0.946748476345
0.963725733033
0.970990354153
0.974362848785
0.976976691559
0.979315138266
0.981729343926
0.983153734393
0.984089260017
0.984370386412
0.984446944266
3.39525804785e-17
1.9247671884e-15
3.57113221266e-14
2.28726160907e-13
2.18261699731e-13
3.86718766794e-13
4.88928971257e-12
1.78415595275e-11
3.73319963238e-11
1.39767278875e-09
1.18491486889e-07
3.38908681437e-07
1.42922310911e-07
7.29025285816e-09
2.37831947396e-10
1.82606556012e-09
9.92130425606e-08
1.6083249522e-07
1.28793174986e-06
2.11244444068e-05
0.000357989689961
0.00225025911049
0.0477177215518
0.160258740708
0.214832362864
0.212830233495
0.222838713611
0.430304319908
0.604327747918
0.70944482112
0.784594439888
0.82861329994
0.842957557656
0.829844434554
0.777270680658
0.670898768161
0.489546557986
0.17831987205
0.0027553080927
0.0024621150601
0.0112706458456
0.324280712769
0.561352071571
0.698411259041
0.763370488763
0.785787297207
0.785405531636
0.785927711233
0.803804718387
0.830980436749
0.867062991107
0.89587857383
0.926536747451
0.951067384838
0.965677578905
0.973371286088
0.977195020766
0.98013324414
0.981992585987
0.98365524883
0.984621877305
0.984701878675
0.984621590998
0.984414230141
1.55879215396e-18
1.36613715309e-17
3.1170525992e-16
2.28443344084e-15
1.17688633547e-14
2.62290911011e-14
7.42591324639e-12
2.19554640653e-12
3.04297514251e-12
2.62505214877e-10
6.49793237224e-09
5.48543928487e-08
1.61954838449e-07
2.44230393021e-08
1.12761836802e-08
1.41067728892e-08
1.70090452368e-07
1.21803341243e-05
0.000405502501674
0.00309696339661
0.0286334790503
0.215991896693
0.383936655997
0.488851120166
0.508933765704
0.537225006183
0.583620345053
0.656183793265
0.757210268915
0.815555649933
0.848547287416
0.875433558887
0.884051364017
0.869880238767
0.823170136262
0.714446580019
0.553815980872
0.236835648733
0.00377461939947
0.00219161085967
0.0063026181668
0.0949693225446
0.436332138845
0.635438168396
0.725410236764
0.783676828097
0.810339596121
0.826668894197
0.845036160394
0.871988413836
0.892471844654
0.913112042867
0.931011418578
0.951418535679
0.966720062996
0.974816926931
0.978673942871
0.981409482446
0.983562859598
0.984801493294
0.985001950807
0.984807362306
0.984536135065
0.984204233714
2.67100159141e-22
1.19843345344e-21
4.8239866412e-20
4.89602505631e-19
1.14174841067e-17
1.5399817923e-16
9.4894694907e-13
2.95199391353e-12
1.92087084862e-13
5.71153869583e-12
2.68083810829e-10
1.74393684877e-07
1.844331544e-05
4.68236833654e-05
2.5284862548e-06
4.95507762401e-06
0.000266825477207
0.0117124533627
0.0848566059113
0.226477143724
0.370801105637
0.489585764913
0.587383046911
0.660859961156
0.684406199651
0.70353198356
0.73596708125
0.79252745033
0.841103377666
0.876722225772
0.898070328793
0.912845379944
0.914634845022
0.901674710508
0.853543070234
0.773202417228
0.623236021698
0.34113839001
0.021856665887
0.00231423642794
0.0160977941969
0.092669904766
0.401306867829
0.600298022419
0.719088186935
0.801315261665
0.836268171238
0.863609632035
0.879921536919
0.898168401043
0.912054766755
0.925423028216
0.941288283006
0.955128058814
0.966619749142
0.974456871897
0.978745364029
0.982130936738
0.984136056408
0.985035225718
0.985048789678
0.984759153723
0.984479380519
0.984386336219
1.0847096949e-20
8.62942174268e-20
7.06559306543e-20
1.11598935805e-19
1.10430037746e-18
1.52650054414e-17
1.66827569781e-14
7.42500825126e-13
2.55946937169e-13
1.61598931637e-13
7.58021277566e-12
1.02882336863e-07
0.000148273381051
0.000912437095205
0.000479119160508
0.00675176057663
0.066218899326
0.218994353699
0.39542920881
0.514387370029
0.59526576188
0.678585925693
0.734511168675
0.773856618288
0.789657290048
0.801061388746
0.817364149095
0.848867142989
0.881218715012
0.90966872325
0.922467488083
0.930433425063
0.930016803727
0.916427744089
0.885251293659
0.816934382754
0.684482914626
0.452729339586
0.131716460687
0.00444834139638
0.0168355487825
0.187755194229
0.448561246163
0.631492355614
0.749012305663
0.821757073919
0.863756383365
0.887659562376
0.903041229949
0.917092059042
0.928184179221
0.939706443785
0.948632528707
0.957854514643
0.966152943038
0.973119138494
0.977947472948
0.981805427357
0.983987794055
0.984938977225
0.985118101751
0.984976546543
0.985010249892
0.985004062605
2.24953660971e-18
4.93783336123e-18
2.19983353624e-18
4.46425014459e-19
2.48989962383e-19
1.08206507214e-17
2.94118003247e-15
5.26133965659e-14
4.46375078335e-14
1.20445170205e-14
7.21091231619e-11
7.6921111781e-07
0.000237210932244
0.00140411316346
0.0151728524652
0.0568257510749
0.133966503543
0.240813794512
0.404993054435
0.564458681598
0.677969777609
0.770095890277
0.801827697233
0.824660976259
0.845515633445
0.85871862315
0.870220091739
0.887854227349
0.901290269344
0.918173452403
0.929331669469
0.935858691055
0.93556957029
0.926690314569
0.901393253281
0.842078557401
0.745270858717
0.577768638168
0.305213464843
0.0244824550164
0.0037130410884
0.158127655738
0.50084329653
0.664399619584
0.79154776851
0.853859072502
0.889845847914
0.910643508616
0.92486838616
0.936507583414
0.944326677463
0.950163136201
0.955481587236
0.960792611133
0.9663454702
0.971716989649
0.976591150488
0.981033528505
0.983543431952
0.984777636268
0.985187043382
0.985263218785
0.985477742807
0.985620240074
1.81590801873e-19
9.7527837149e-19
3.84731199361e-19
3.32289656645e-20
3.63182986481e-20
9.56178115169e-19
1.4947905979e-16
1.21936620217e-15
6.00293672621e-15
1.11186788752e-14
4.16309853257e-12
1.19853359972e-07
2.90111630983e-05
0.00017402615784
0.000790591606762
0.006356593197
0.0128576564603
0.00479523510645
0.0832539467115
0.398159392211
0.644224044854
0.773182475246
0.835537271868
0.858742998641
0.867960428394
0.876925923478
0.885810303907
0.89695627875
0.905792180647
0.914978863318
0.924140777338
0.930869441281
0.932058373383
0.92649544899
0.911347700888
0.867960692018
0.788250584721
0.661975174892
0.456225763431
0.069869269761
0.0254210877225
0.215178462613
0.520514208388
0.709724647608
0.824392977192
0.876433880253
0.910694447182
0.928123694741
0.940862913748
0.950491213032
0.955985997482
0.959842055349
0.962558048249
0.964623447797
0.967886574604
0.971703110569
0.976188125348
0.980199997357
0.982950292511
0.984451592172
0.985122356189
0.985398150539
0.985664029416
0.985937485852
1.53379316262e-20
5.60467479013e-20
1.23728286459e-20
1.78075930641e-20
1.00886742487e-18
1.75906245081e-18
1.68571391996e-17
1.31252295912e-15
9.49949215872e-15
7.23682082556e-15
3.72730778228e-15
2.04691627176e-11
1.80516054001e-08
1.00488399967e-05
1.90522055344e-05
4.89829153139e-06
4.85940088151e-06
8.34928191214e-06
1.36192005224e-05
0.195620031398
0.549305479832
0.732407947703
0.824139690092
0.867280355134
0.881500326712
0.88796406672
0.894415471855
0.902795509406
0.907477132319
0.911864890636
0.916748184923
0.921676940777
0.921730922584
0.91853349952
0.910818534934
0.889827973258
0.832073923606
0.727790866613
0.573049350075
0.340707505388
0.200217565636
0.379534643627
0.582867821322
0.734647548709
0.844911568074
0.895346214282
0.924376798582
0.941278928657
0.952845807975
0.961861950566
0.966054310799
0.968663257906
0.968670171437
0.969325666931
0.971168715213
0.973171469581
0.976647685163
0.979871005923
0.982593339799
0.984102600895
0.984851585239
0.985172477713
0.985527511601
0.985915306327
2.57390024025e-23
1.02328619256e-21
4.44825214457e-21
1.1299791056e-19
3.77015400565e-18
5.59296039922e-17
8.87058754051e-16
5.35897532423e-15
1.75778370058e-15
1.34069462643e-16
2.00336336839e-16
4.40540907163e-16
1.88333699321e-12
3.62702441036e-09
9.70565839604e-09
1.67214553724e-08
3.12586853979e-08
1.30566076208e-08
0.00012043091415
0.12549449001
0.494508960447
0.683085549844
0.791342854554
0.851110403421
0.879083207348
0.893270688587
0.902383802568
0.905596064557
0.908142488567
0.910232194856
0.914539387492
0.917404120408
0.912870211113
0.901162520239
0.891787343016
0.884072310803
0.864899637469
0.798142564095
0.673390729089
0.542804847515
0.456426739673
0.529254339046
0.653894780782
0.785015639464
0.857864717946
0.907932845526
0.933602572385
0.949971484946
0.961542293204
0.969165704552
0.972859041616
0.974636399609
0.975171332943
0.975368716801
0.975848632177
0.977161695192
0.978617538105
0.980583665122
0.982428649074
0.983775442976
0.984569384459
0.984921875326
0.985403082857
0.985850437304
5.46411807152e-23
7.25121511473e-21
2.80069161047e-20
2.75826788543e-19
1.60424547197e-18
1.58271807369e-17
1.31563253997e-16
4.97327566479e-16
4.98004851965e-17
9.74465039139e-18
2.71724218361e-17
6.08578057063e-17
2.93262269011e-15
7.3673460518e-12
1.21096859027e-10
1.20037763703e-09
2.93469857546e-09
3.99820847142e-07
0.00379370275927
0.181609411633
0.440675686694
0.627193532604
0.738065343139
0.804797662344
0.850886336912
0.885050801298
0.900150306996
0.906586664869
0.908842781248
0.911185314722
0.913928407877
0.914366817047
0.903332760035
0.872730774118
0.852245447219
0.845464864178
0.852893494702
0.837664744416
0.782017733246
0.703756198457
0.624569625566
0.642493556972
0.730906813459
0.804365988768
0.876960402404
0.913995504661
0.939967841457
0.956049153024
0.966622960106
0.973710798363
0.977308330316
0.979155917824
0.979949033615
0.980281626747
0.980510429246
0.980847364249
0.981677696007
0.982203070191
0.98308835445
0.983857010402
0.984401589454
0.984753398109
0.985308512427
0.985766663937
1.14987400759e-20
2.82498451497e-20
3.36202613038e-20
1.09372743629e-19
2.34338524177e-17
2.16774610219e-16
4.44349876975e-16
6.57111449514e-16
3.61098474009e-16
8.24422224717e-17
2.71321214547e-17
8.84401078988e-17
4.60078405924e-15
1.80507436657e-12
3.43429657837e-11
1.38053653688e-11
3.27263597849e-09
9.98917635587e-07
0.00123659956483
0.11514330705
0.341038509444
0.523724597489
0.639003847944
0.710514192727
0.782631794362
0.83831397795
0.875818512464
0.896424958583
0.904145208423
0.90795439595
0.907995282488
0.901590419364
0.867074780657
0.819909020137
0.791022393592
0.771235413865
0.795673929424
0.828339167372
0.822237783023
0.783747450751
0.73875437148
0.731493913392
0.771560328767
0.835602148016
0.893621072687
0.925051065954
0.945520100623
0.960418229049
0.970425159146
0.976434261721
0.979685418482
0.98156452693
0.982488816478
0.982922481406
0.98316626061
0.983274470584
0.983467843331
0.983694960882
0.983954603668
0.984224773942
0.984547367088
0.984922574097
0.98547983009
0.986136476341
6.7508971945e-23
2.56088268822e-22
1.75525103131e-19
5.51152552618e-19
2.13855920907e-17
8.84764054581e-17
8.70100125356e-16
3.02730518657e-15
4.17789631276e-15
1.49297725643e-15
1.59110541499e-16
1.00015125973e-16
5.88667736205e-16
1.99965245664e-13
2.59782358837e-12
2.11885251926e-10
1.07227328353e-08
7.52286027498e-06
0.000494809371785
0.052403154545
0.214229728059
0.376182487107
0.488901721826
0.571565789968
0.657396442601
0.74414468429
0.812261695574
0.852940195853
0.875982285426
0.880762057801
0.871560210443
0.850187615451
0.79773790018
0.74717120047
0.703641756532
0.688809619336
0.729716383094
0.795525043618
0.8293398355
0.821564816156
0.800860509044
0.799905433875
0.824819955309
0.867847755344
0.90710349275
0.932870747309
0.951139446694
0.963507418304
0.971424713337
0.977515883967
0.980533997605
0.982349626402
0.983252812988
0.983703006618
0.983986223436
0.984157658435
0.984311256021
0.984495715232
0.98462948008
0.98483844662
0.985105400182
0.985517200383
0.986026319057
0.986543231261
9.47386225293e-25
3.86983028175e-22
4.4129835309e-20
1.83516481149e-19
1.09783898199e-18
1.88399052237e-17
6.84329572482e-16
3.27030995686e-15
5.27605037521e-15
2.68341592691e-15
4.67903589847e-16
6.8430841897e-16
1.78186467852e-15
6.52282043472e-14
9.02506847937e-11
2.29064011566e-09
2.43072826655e-08
3.29650416219e-06
0.00012850619468
0.00414971202556
0.0564518088083
0.169682080973
0.241882500387
0.33922758492
0.472764393756
0.597905779093
0.688294007869
0.756872792248
0.801830928948
0.807314239276
0.777185549398
0.737343742247
0.69389418584
0.656846572874
0.6402145431
0.661617011363
0.70979925155
0.781904151708
0.828237388184
0.84177268393
0.836565935944
0.842984288566
0.863970166321
0.893046443263
0.921123945328
0.939496318821
0.955367814292
0.964917246432
0.972305620736
0.977592439522
0.980510616587
0.981984549127
0.982788078737
0.983226922249
0.983642296822
0.984026272263
0.984435893363
0.984799395988
0.985100439545
0.985385509094
0.985685706699
0.986033771857
0.986474322473
0.986848771638
7.6853134092e-26
1.20662849268e-23
3.47145578221e-21
4.52114008022e-20
4.85642579414e-20
2.65160191267e-18
1.30119331904e-16
2.13999967048e-15
8.53482245416e-15
9.16834822134e-15
2.26991868158e-15
6.36668981654e-16
1.88136501443e-13
3.73748314232e-11
1.8669051993e-09
5.35300934194e-09
3.91874327098e-09
4.46753092802e-08
8.15399103667e-07
3.33791159118e-06
7.59249713344e-05
0.00721917613358
0.00751086824999
0.0402222894296
0.201606691609
0.377920164912
0.513724724514
0.598246562569
0.654231286871
0.644870648754
0.604549712698
0.560819416041
0.575045172614
0.6136644631
0.665590018917
0.715932345107
0.757070064364
0.809594005679
0.844990167735
0.861546980859
0.865379229827
0.871312779543
0.890482323237
0.912109094158
0.930926419309
0.946166722503
0.958641178525
0.966746288257
0.972223376256
0.976951176919
0.979315843612
0.980783392035
0.981486912993
0.981919803409
0.982403190651
0.983114127067
0.983788760488
0.984488455533
0.985074263374
0.985544314402
0.98593577185
0.986303289112
0.986675065353
0.987036297648
5.77616144155e-27
5.8729012568e-25
2.90636555561e-23
3.16694573858e-22
8.10142704062e-22
8.64659509454e-20
7.25060491662e-18
1.80545056678e-16
1.79364370001e-15
1.36337967631e-14
2.16668111862e-14
5.62423771185e-15
2.58175217072e-13
1.16474776625e-10
1.57555087952e-08
2.65260993357e-08
5.15944012636e-08
2.27888925041e-06
1.3933627527e-05
2.33398754747e-05
2.37874278946e-05
0.000163550540823
0.00036111437219
0.00116854065883
0.0189135058691
0.0880757563135
0.232277717618
0.353295169185
0.415587727121
0.415046968094
0.368759448232
0.352336504391
0.468603615655
0.609927128641
0.712519549073
0.781509930779
0.826116877612
0.852152374925
0.86934920115
0.880519991354
0.885876946336
0.891879749443
0.907626826965
0.922478904375
0.939070941466
0.950660301499
0.959591088506
0.966535052309
0.971391618638
0.975589747129
0.977897323257
0.979469777651
0.980240536679
0.980668506452
0.981307206285
0.981969928792
0.982806947494
0.983690258765
0.98451874809
0.985218056004
0.985780966478
0.986250896729
0.986630803365
0.986971981761
4.85371482343e-27
6.90142014446e-25
8.19791467853e-24
1.01327974468e-22
1.70747200059e-21
4.40309570674e-20
1.63003087706e-19
6.01697004906e-19
3.51334237087e-17
4.50265326789e-15
3.41015610832e-14
2.72553719907e-14
1.21719856618e-14
1.87131173086e-10
7.45994163497e-08
1.24294002951e-06
4.47102013035e-06
2.24773683637e-05
4.64772627166e-05
8.60503543977e-05
0.000190210337516
0.000638791664516
0.000929768787693
0.00053462372306
0.00491185424948
0.0344240784631
0.0380417979363
0.117319060168
0.173411921571
0.178184757835
0.120227660947
0.167317442783
0.394147406717
0.603106691376
0.708796045461
0.795878658937
0.84158298927
0.872475854956
0.888953697499
0.899363927096
0.904555689304
0.909380373114
0.920091688937
0.930648148085
0.941539808796
0.952135247818
0.959661485375
0.965591775237
0.969979569909
0.973887410483
0.976170748745
0.97780930122
0.979036379744
0.979891887762
0.980576794172
0.981220056656
0.982047501565
0.982742285259
0.983609757541
0.984444113378
0.985194835256
0.985817350811
0.986345633666
0.986815695058
2.91383138843e-25
1.99910587208e-23
5.10541214604e-23
3.14025342175e-22
9.27518532619e-21
3.72200606715e-20
1.03654112426e-19
8.92879017866e-19
6.11044554113e-17
2.75538126113e-15
2.41732129155e-14
3.23175130883e-14
1.93382337076e-14
1.23482740435e-10
3.97328104581e-08
3.55642713507e-06
1.85252631687e-05
2.91588279186e-05
3.74454727386e-05
0.000122077285996
0.000759063080233
0.00256673452472
0.000706682052223
0.000917168618675
0.00279397834762
0.0130856451487
0.0201031203949
0.0116170336017
0.0238168401506
0.0482031840702
0.0682589397066
0.152334937472
0.349415882595
0.545540498526
0.674166370366
0.771326368331
0.824354874122
0.866350716756
0.894663037508
0.909569294662
0.917598622522
0.925027969602
0.931145074029
0.93872212013
0.947106544209
0.954103852031
0.960041158707
0.964795772596
0.968644482741
0.972309965467
0.974654066652
0.97656813504
0.978262500505
0.979389232066
0.980396944541
0.981018636524
0.981546779474
0.98203790479
0.982631144009
0.983493947929
0.98434774311
0.985130772254
0.985827007722
0.986437228459
1.49222476107e-25
2.78532776742e-23
4.2850948755e-22
4.3260512549e-21
1.88317115709e-20
6.9166454231e-20
1.57982680488e-18
5.13269317141e-18
7.93005597822e-17
7.13547292915e-16
2.79649934928e-15
3.86004722175e-15
3.95404907056e-15
2.71089627809e-12
5.65680889467e-09
1.22702234912e-06
1.59307150901e-05
1.6590083399e-05
4.13516860954e-05
0.0003226058656
0.00122279901275
0.000680463465745
6.83366736775e-05
0.000359290405022
0.00230471398243
0.00502950217866
0.0107519386023
0.0143293307721
0.0213116532135
0.0371413120201
0.0755001653096
0.233369587522
0.408730579398
0.587119468546
0.690705328904
0.776412587796
0.823771632424
0.858879621992
0.885383387789
0.904966205866
0.919168007853
0.929497993609
0.93753115399
0.944737515962
0.951131098228
0.955905966395
0.960817226771
0.964722926548
0.96813013545
0.970969638334
0.97345465153
0.975888784075
0.978103539731
0.979617197154
0.980488477359
0.980670270109
0.980926618527
0.980949519106
0.981403592237
0.982268807633
0.983070819948
0.984014444425
0.984951539072
0.985652032425
8.61978589482e-23
1.71201999764e-20
4.91815834064e-20
5.16821931834e-21
1.14879866517e-20
1.90516004523e-19
8.81667720644e-18
1.03407714594e-17
2.47893034562e-17
6.91261087139e-17
7.10866928789e-17
1.28186355299e-15
8.87551743256e-14
2.21249651999e-12
1.62534535986e-09
4.11650204234e-07
5.77110286032e-06
7.71212795306e-06
5.20259426345e-05
9.86090006937e-05
4.87411202364e-05
3.23898893998e-05
1.06274180906e-05
5.17992868563e-05
0.000737216027066
0.00351418882325
0.00469242248054
0.00404575482279
0.00553548409126
0.0378638509952
0.21910066124
0.424455167872
0.565362403053
0.677048144799
0.760892271063
0.804570032364
0.834539936942
0.862182203787
0.882373542651
0.901780645342
0.916074134757
0.928234305702
0.938088764563
0.946661192974
0.952620705517
0.957171742731
0.961331208977
0.965625054849
0.968467501974
0.971565800903
0.974272727719
0.976333220386
0.978561951988
0.97989160819
0.980136939481
0.980039752423
0.97990463877
0.979707296979
0.979960796439
0.980709563413
0.981782479075
0.982942082274
0.984098492768
0.984876546808
4.98202420601e-20
2.3597078226e-18
3.855990314e-18
3.27052498878e-18
1.2587055359e-17
1.71438894974e-16
5.17839837157e-16
5.08675575521e-16
3.29313663517e-16
1.01622031517e-16
4.24408619832e-16
6.44042614653e-14
2.74427880838e-12
1.98338428365e-11
4.13599696347e-10
4.70708023115e-08
6.66478191971e-07
2.8931513387e-07
1.17411018867e-05
9.71546977868e-06
8.43967301836e-07
5.45746798815e-06
1.86816347828e-05
6.27938536416e-05
0.000166127504899
0.000720510019121
0.00221337974428
0.00426281365783
0.0564356930961
0.243151021581
0.435270754251
0.585867286486
0.70139767401
0.783044381907
0.820970480507
0.839941769571
0.85220937427
0.865900379159
0.881221641837
0.89930197633
0.915216953993
0.929006746069
0.941240212443
0.949199924546
0.955629795347
0.960271149475
0.963998660369
0.967198383469
0.970076884282
0.972760998998
0.975366816781
0.977193918154
0.978891767439
0.979480128811
0.979234791558
0.978369318696
0.97742200048
0.976878013023
0.977013437802
0.977710012153
0.979277373477
0.981035192719
0.982908803142
0.984109267108
1.37988001439e-18
3.08233332103e-17
1.69779604546e-16
6.91056112941e-16
1.66216310962e-15
1.78843721992e-15
9.69816578785e-16
1.4936702517e-15
1.09699013208e-15
1.08104038146e-15
1.53821451348e-14
6.76047627534e-13
7.00144453842e-12
1.8358441888e-11
2.36829311846e-11
4.7454283823e-10
1.27653509911e-08
2.50632504707e-08
9.56458061635e-08
3.14931696467e-06
1.96105942434e-06
1.23497452879e-06
4.10876334453e-06
1.66868935698e-05
0.000406576265354
0.0183255501091
0.105322224314
0.251239818341
0.404193891729