/*--------------------------------*- C++ -*----------------------------------*\
| =========                 |                                                 |
| \\      /  F ield         | OpenFOAM: The Open Source CFD Toolbox           |
|  \\    /   O peration     | Version:  4.x                                   |
|   \\  /    A nd           | Web:      www.OpenFOAM.org                      |
|    \\/     M anipulation  |                                                 |
\*---------------------------------------------------------------------------*/
FoamFile
{
    version     2.0;
    format      ascii;
    class       volScalarField;
    location    "0";
    object      omega;
}
// * * * * * * * * * * * * * * * * * * * * * * * * * * * * * * * * * * * * * //

dimensions      [0 0 -1 0 0 0 0];

internalField   uniform 5506.6948;

boundaryField
{
    BOTTOM
    {
        type            cyclic;
    }
    TOP
    {
        type            cyclic;
    }
    SOUTH
    {
        type            cyclic;
    }
    NORTH
    {
        type            cyclic;
    }
    INLET
    {
        type            fixedValue;
        value           uniform 5506.6948;
    }
    OUTLET
    {
        type            zeroGradient;
    }
}


// ************************************************************************* //
