/*--------------------------------*- C++ -*----------------------------------*\
| =========                 |                                                 |
| \\      /  F ield         | OpenFOAM: The Open Source CFD Toolbox           |
|  \\    /   O peration     | Version:  4.x                                   |
|   \\  /    A nd           | Web:      www.OpenFOAM.org                      |
|    \\/     M anipulation  |                                                 |
\*---------------------------------------------------------------------------*/
FoamFile
{
    version     2.0;
    format      ascii;
    class       volVectorField;
    location    "0.1008295";
    object      Uref;
}
// * * * * * * * * * * * * * * * * * * * * * * * * * * * * * * * * * * * * * //

dimensions      [0 1 -1 0 0 0 0];

internalField   uniform (0.94 0 0);

boundaryField
{
    BOTTOM
    {
        type            cyclic;
    }
    TOP
    {
        type            cyclic;
    }
    SOUTH
    {
        type            cyclic;
    }
    NORTH
    {
        type            cyclic;
    }
    INLET
    {
        type            fixedValue;
        value           uniform (0.94 0 0);
    }
    OUTLET
    {
        type            zeroGradient;
    }
}


// ************************************************************************* //
